227
Lattice="24.0 0.0 0.0 0.0 24.0 0.0 0.0 0.0 24.0" Properties=species:S:1:pos:R:3 timestep=8698 pbc="T T T"
B        6.02690000       4.33520000       5.58290000
B        6.82600000       4.51990000       7.11350000
B        6.01720000       5.84840000       7.87620000
B        4.51780000       6.31330000       7.24030000
B        7.81070000       4.48550000       9.92570000
B        6.20980000       5.06150000       9.47810000
B        4.80510000       4.52750000      10.35330000
B       12.53400000       5.96780000      11.94000000
B       11.71030000       6.06350000      10.32380000
Zr      13.86640000       4.92670000      10.14620000
B        4.22230000      10.20400000       7.21930000
B        6.12740000       8.82500000       9.34320000
B        4.54650000       9.29590000       8.69090000
B       11.31590000       7.18340000      11.58900000
Ti       7.55110000       6.86080000       9.26550000
B        8.02710000       7.63080000      11.45810000
B        6.36330000       8.01270000      10.89110000
Zr       9.58470000       5.60390000      11.39750000
B        9.81680000       6.40780000      13.81300000
B        8.23710000       6.82880000      13.10800000
Ti       4.68170000       6.92740000       9.51610000
B        4.91200000       7.58550000      11.87900000
Nb       6.50950000       5.67120000      11.74900000
B        6.77020000       6.38870000      14.11000000
B        5.11030000       6.76670000      13.47900000
B       14.30430000       6.71890000      11.74700000
B       12.83330000       6.44030000      13.60500000
B       12.46820000       7.82590000      12.70900000
Nb      14.23990000       4.79700000      13.13300000
B       13.20050000       5.77070000      15.11000000
Nb      11.43000000       4.50750000      13.69800000
B       11.73760000       5.29510000      16.05000000
B       10.06020000       5.65320000      15.38700000
Ta       8.36140000       4.47030000      13.98700000
B        8.60120000       5.23050000      16.37500000
B        6.96340000       5.59210000      15.72800000
B       10.42850000       4.05350000      18.60200000
B        8.79320000       4.41430000      17.97800000
Hf       5.24980000       4.41890000      14.31800000
B        5.49380000       5.14480000      16.71200000
B        5.68480000       4.34700000      18.32900000
B       13.54550000       4.20520000      18.33400000
B       11.91750000       4.52400000      17.63600000
B        4.30850000      13.17630000       8.37690000
B        6.23110000      11.95860000      10.82250000
B        4.63890000      12.28480000      10.17760000
B        9.45820000      11.02330000      12.13500000
B       11.29750000      10.02610000      14.33400000
Hf       7.71700000      10.08140000      10.73200000
B        8.05790000      10.73690000      13.09400000
B        6.43020000      11.15790000      12.46600000
Hf       9.84110000       8.73650000      12.83800000
B        9.90400000       9.50950000      15.28200000
B        8.27620000       9.89170000      14.67300000
Nb       4.75650000       9.95420000      11.05230000
B        5.00570000      10.66690000      13.44000000
Hf       6.61370000       8.73240000      13.26800000
B        6.84070000       9.44650000      15.64700000
B        5.19300000       9.83410000      15.02000000
B       14.09630000      10.12690000      13.67400000
Ta      14.19390000       9.02200000      11.60500000
B       12.90680000       9.66670000      14.92700000
B       11.02760000      10.89600000      12.77500000
Ti      14.28840000       7.89990000      14.40300000
B       13.27020000       8.76860000      16.51000000
Ta      11.51540000       7.62380000      15.17100000
B       11.79110000       8.34150000      17.53600000
B       10.11270000       8.69130000      16.90300000
Ta       8.45460000       7.53760000      15.49500000
B        8.66780000       8.21940000      17.86700000
B        7.02490000       8.58250000      17.23800000
Nb      10.28860000       6.38470000      17.72900000
B        8.85490000       7.40500000      19.45500000
Hf       5.33630000       7.46640000      15.85200000
B        5.55000000       8.14250000      18.23000000
Ti       7.17610000       6.27010000      18.08900000
B        5.73500000       7.31300000      19.82000000
Hf       4.05160000       6.19770000      18.43400000
Ta      13.30940000       6.49190000      17.44700000
B       13.57830000       7.22960000      19.83200000
B       11.95460000       7.56610000      19.15200000
B        4.61440000      16.06230000       9.95300000
Ti       6.09890000      14.10990000       9.93320000
B        6.40970000      14.98040000      12.35600000
B        4.84910000      15.31300000      11.66700000
B       14.27480000      13.67400000      13.83800000
B        9.54750000      14.51110000      13.88700000
Hf       8.01850000      13.10760000      12.22200000
B        8.15340000      13.76710000      14.63600000
B        6.54140000      14.15060000      13.97300000
Hf       9.73600000      11.91400000      14.48700000
B        9.99770000      12.51150000      16.86600000
B        8.32680000      12.86560000      16.22900000
Ta       4.88680000      13.00040000      12.58700000
B        5.08290000      13.64400000      14.94900000
Ti       6.66710000      11.77320000      14.82400000
B        6.88020000      12.39630000      17.17500000
B        5.23990000      12.80230000      16.55300000
B       14.40010000      12.85600000      15.27500000
Ti      12.70840000      11.90380000      14.14900000
B       13.10190000      12.58140000      16.48400000
B       11.43740000      12.93380000      15.95900000
Ta      14.49940000      10.76860000      16.15800000
B       13.34180000      11.69860000      18.03500000
Nb      11.58800000      10.62690000      16.70400000
B       11.86910000      11.31680000      19.04100000
B       10.19250000      11.66080000      18.43200000
Ta       8.50470000      10.55360000      17.04000000
B        8.73840000      11.21680000      19.39100000
B        7.06380000      11.60510000      18.77700000
Ti      10.34630000       9.36960000      19.25100000
Hf       5.39010000      10.48320000      17.38900000
B        5.58020000      11.16630000      19.76800000
Zr       7.22630000       9.28280000      19.61800000
Ti       4.11210000       9.22660000      19.97300000
Ta      13.39710000       9.46190000      18.92500000
B       11.35180000      16.52400000      15.83700000
Hf       7.98010000      16.19310000      14.02700000
B        8.02690000      16.51180000      16.26600000
Ti       9.73390000      14.77400000      16.19800000
B       10.00010000      15.53140000      18.43100000
B        8.38890000      15.96470000      17.80600000
Zr       4.93940000      16.03640000      14.16400000
B        5.26530000      16.40300000      16.46600000
Nb       6.71710000      14.67700000      16.38000000
B        6.92500000      15.49330000      18.71800000
B        5.28780000      15.84490000      18.06400000
B       12.64830000      16.72330000      16.90800000
Zr      12.92570000      14.80840000      15.46500000
B       13.03780000      15.63380000      18.12900000
B       11.38890000      15.83920000      17.45500000
B       13.25080000      14.83640000      19.58600000
Ti      11.67680000      13.57580000      18.23900000
B       10.25000000      14.74430000      19.96400000
Hf       8.55430000      13.55170000      18.59900000
Ta       5.43900000      13.49020000      18.92800000
B       13.80560000       4.08630000       5.78250000
B       10.63410000      15.86090000      14.46300000
B       10.09500000      16.06490000      12.92800000
B       11.10170000      16.13340000      11.57000000
B       13.47160000      14.70750000      12.93600000
B       12.76970000      15.50760000      11.61100000
B       13.70430000      15.38570000      10.17600000
B       13.39000000      16.27860000       8.86140000
B       14.14330000      16.54130000       7.54070000
B       14.55280000      16.06550000       6.11930000
B       13.78510000      16.57210000       4.78760000
B        5.92010000      16.18370000       8.83980000
B        7.58580000      15.77570000       9.07730000
B        6.99610000      16.50310000       7.56290000
B        7.93420000      16.37860000       6.04860000
B        7.38070000      16.89110000       4.46770000
Ti       8.84740000      15.85080000      11.10240000
B        9.76850000      13.87170000      10.65200000
B        9.05670000      14.73180000       9.15820000
Ti      11.20310000      14.11260000      12.54500000
B       12.00000000      12.00000000      12.00000000
B       11.33680000      12.94600000      10.60730000
Nb       9.30020000      16.72090000       7.95010000
B       10.05890000      14.59230000       7.58670000
B        9.47680000      15.39540000       6.05820000
Nb      11.45270000      15.06870000       9.58300000
B       12.26350000      12.79790000       9.08510000
B       11.62260000      13.64500000       7.58700000
B       10.42790000      15.21380000       4.52050000
Zr      12.00160000      15.87310000       6.41280000
B       12.52590000      13.46920000       6.02350000
B       11.93050000      14.18650000       4.51230000
B       13.65750000      11.14610000      12.15500000
Ta      13.62660000      13.25920000      11.07590000
B       14.35510000      11.03170000      10.51190000
B       13.77480000      11.84660000       9.13300000
Zr      14.08750000      14.03740000       7.93470000
B       13.97440000      12.52070000       5.87560000
Ta      14.30160000      14.31550000       4.70980000
B        5.31340000      13.82530000       7.06310000
Ta       5.60950000      15.93020000       5.65840000
B        6.08720000      13.66770000       5.38740000
B        7.35340000      11.97320000       8.47280000
B        9.71660000      10.30440000       9.76060000
Nb       7.63920000      14.15890000       7.22540000
B        8.26850000      11.87520000       6.88280000
B        7.64200000      12.65400000       5.33170000
Zr       9.75160000      12.39310000       8.76710000
B       10.50910000      10.10070000       8.28280000
B        9.82320000      10.84700000       6.80090000
Ti       8.03510000      14.73270000       4.17120000
Nb      10.10150000      13.00500000       5.68110000
B       10.69500000      10.58500000       5.28390000
B       11.93810000       8.71350000      11.37450000
Ti      11.97960000      10.63410000      10.17750000
B       12.71450000       8.46390000       9.80060000
B       11.99340000       9.09750000       8.29560000
B       14.07700000       7.35720000      10.05110000
Hf      12.33500000      11.26200000       7.13380000
B       12.79610000       8.85750000       6.73730000
B       12.16560000       9.54330000       5.22490000
Zr      14.47480000       9.37080000       8.55910000
B       14.20150000       7.90070000       6.78470000
Nb      12.53790000      11.68080000       4.12860000
B        4.37040000      11.21800000       4.55050000
Nb       5.93600000      11.55100000       6.57700000
B        6.47570000       9.35550000       6.13920000
B        5.75710000      10.09000000       4.67130000
Ta       8.04260000       9.76110000       7.94410000
B        8.70290000       7.58170000       7.57480000
B        7.85820000       8.22590000       6.18070000
Nb       8.25790000      10.32400000       4.97060000
B        8.75500000       7.93530000       4.67490000
Zr      10.19780000       8.05560000       9.62540000
B       10.52470000       5.73390000       9.08410000
B        9.96300000       6.41920000       7.65320000
B       11.26420000       4.36940000       9.75860000
Ti      10.39120000       8.49480000       6.43960000
B       10.86410000       6.10130000       6.14390000
B       10.26940000       6.90880000       4.65590000
Hf      12.54390000       6.68810000       7.99750000
B       12.28690000       4.99200000       6.09810000
Hf      12.78650000       7.14320000       4.92070000
B       13.07060000       4.61940000       4.43730000
B       13.18090000       4.22450000       7.46280000
Zr       6.09270000       7.59350000       4.52640000
B        6.75850000       5.20880000       4.13210000
Nb       8.35030000       5.88000000       5.95980000
B        8.31620000       4.41240000       4.07680000
Ta      10.54710000       4.01950000       7.44160000
Nb      10.67930000       4.53300000       4.32550000
271
Lattice="24.0 0.0 0.0 0.0 24.0 0.0 0.0 0.0 24.0" Properties=species:S:1:pos:R:3 timestep=8698 pbc="T T T"
B       11.05620000      13.29716000       5.61200000
B        9.38850000      13.65458000       4.95300000
B        7.92590000      13.23371000       5.95700000
B        6.24930000      13.59508000       5.32200000
Ta       4.59430000      12.40108000       4.01000000
B        4.78580000      13.15449000       6.25000000
B       13.30820000      12.24905000       4.83200000
B       12.44700000      13.69440000       4.55500000
B       13.87320000      12.04737000       6.48000000
B       12.92800000      12.13576000       7.90600000
B       11.31910000      12.52747000       7.21600000
B        8.09340000      12.44210000       7.57200000
B       12.40280000      17.41772000       4.49300000
B        9.28540000      17.40232000       4.83200000
B        7.63910000      17.77442000       4.21500000
Ta      10.89070000      15.50687000       4.68900000
B       11.14780000      16.22852000       7.08500000
B        9.48170000      16.60742000       6.46000000
B        6.15940000      17.30442000       5.19200000
B        4.52250000      17.63942000       4.56100000
Ta       7.76690000      15.49350000       5.07700000
B        8.02170000      16.19502000       7.45500000
B        6.34800000      16.51842000       6.80100000
Ti       4.65510000      15.38924000       5.42100000
B        4.87690000      16.07012000       7.78100000
Ti      13.85740000      15.63489000       4.37500000
B       14.17490000      16.19652000       6.69100000
B       12.59540000      16.63472000       6.07600000
B       14.36450000      15.47248000       8.23500000
Ti      12.77600000      14.31850000       6.91700000
B       12.96900000      15.14662000       9.29800000
B       11.33630000      15.48590000       8.70800000
Zr       9.63980000      14.31690000       7.34400000
B        9.90070000      15.04721000       9.70700000
B        8.22460000      15.41551000       9.08300000
Hf      11.52790000      13.12599000       9.63700000
B       11.72120000      13.93091000      11.86500000
B       10.07570000      14.27239000      11.30700000
Hf       6.49700000      14.24712000       7.69400000
B        6.75090000      14.93266000      10.08100000
B        5.07860000      15.28238000       9.43400000
Hf       8.36560000      13.05812000       9.98600000
B        8.64670000      13.78075000      12.32500000
B        6.96390000      14.13005000      11.73000000
Zr       5.24050000      12.96455000      10.39100000
B        5.50400000      13.68488000      12.71200000
Ti      14.49600000      13.47044000       9.19800000
B       14.76260000      14.00756000      11.35500000
B       13.17310000      14.45449000      10.86700000
B       14.85850000      13.08025000      12.65900000
B       13.38720000      12.43740000      13.02600000
B       11.88700000      13.14825000      13.39700000
B       12.00000000      12.00000000      12.00000000
B        8.88920000      13.02496000      13.86900000
B        5.67870000      12.96009000      14.29600000
Zr      10.99170000      18.55252000       6.22700000
B       11.23210000      19.26612000       8.61700000
B        9.57730000      19.59682000       7.96300000
Ta       6.03420000      19.61682000       4.33400000
Nb       7.87290000      18.46772000       6.55600000
B        8.12500000      19.13042000       8.92000000
B        6.44840000      19.49872000       8.27800000
Nb       4.74620000      18.36132000       6.91700000
B        4.96870000      19.04982000       9.26400000
Hf      14.14720000      18.59752000       5.88800000
B       14.28520000      19.39952000       8.36500000
B       12.71760000      19.75552000       7.64600000
B       14.44210000      18.66182000       9.89700000
Hf      12.88740000      17.41862000       8.45700000
B       13.06490000      18.14792000      10.87300000
B       11.42710000      18.46842000      10.21900000
Ti       9.74400000      17.31582000       8.81900000
B        9.99410000      18.00002000      11.17300000
B        8.32750000      18.33892000      10.53300000
Ti      11.58270000      16.19982000      11.05600000
B       11.84520000      16.88172000      13.38600000
B       10.19810000      17.21952000      12.77300000
Nb       6.59100000      17.23202000       9.17400000
B        6.83720000      17.88872000      11.53300000
B        5.16040000      18.23592000      10.89200000
Hf       8.47090000      16.07402000      11.42800000
B        8.71540000      16.72892000      13.76000000
B        7.03440000      17.06792000      13.13800000
Ta       5.32490000      15.96322000      11.78000000
B        5.57320000      16.59932000      14.10600000
Hf      14.73410000      16.31322000      10.67800000
B       14.88070000      16.88222000      13.09100000
B       13.29450000      17.33962000      12.43300000
B       15.06970000      16.05572000      14.62000000
Ta      13.48630000      14.94995000      13.26500000
B       14.65470000      14.46567000      15.51900000
B       13.59850000      15.82118000      15.67200000
B       12.00770000      16.09682000      14.98700000
Ta      10.34080000      14.91572000      13.61900000
B       10.57840000      15.58734000      15.96900000
B        8.90630000      15.91842000      15.34700000
B       10.76320000      14.78454000      17.56000000
Ti       7.20600000      14.78123000      14.01300000
B        7.43160000      15.42491000      16.32500000
B        5.77270000      15.80145000      15.71300000
Zr       9.08510000      13.55029000      16.23200000
B        9.29130000      14.36654000      18.56000000
B        7.62050000      14.65770000      17.94400000
Ta       4.05130000      14.66681000      14.36100000
B        4.29510000      15.34260000      16.70200000
Ta       5.90970000      13.49215000      16.59200000
B        6.14690000      14.24699000      18.91400000
B        4.50170000      14.56897000      18.31000000
Zr      14.83670000      12.27499000      14.81300000
B       13.80910000      14.83623000      17.20600000
Nb      12.22090000      13.84596000      15.79000000
B       12.37930000      14.45285000      18.14500000
Ta      13.88060000      12.60690000      18.06000000
B       12.53260000      13.66187000      19.72200000
Ti      11.64460000      19.17512000      12.57500000
B       11.88390000      19.89512000      14.90300000
Nb       8.55660000      19.05492000      12.91400000
B        8.78660000      19.77052000      15.26900000
Ta       5.39790000      18.93192000      13.24000000
B        5.64280000      19.62372000      15.59200000
Ti      14.64850000      19.33282000      12.20800000
B       15.13230000      19.47382000      16.10500000
Hf      13.61620000      18.05432000      14.82900000
B       15.24230000      18.20922000      17.17000000
B       13.70940000      18.98372000      17.17900000
B       12.08680000      19.13562000      16.52400000
Nb      10.41660000      17.93732000      15.13500000
B       10.65170000      18.65782000      17.51200000
B        8.99070000      18.99382000      16.88600000
B       10.87230000      17.86092000      19.10000000
Hf       7.28360000      17.78232000      15.48200000
B        7.53090000      18.52302000      17.84400000
B        5.84880000      18.83872000      17.19800000
Hf       9.15440000      16.65992000      17.70200000
B        7.73390000      17.73612000      19.44600000
Ta       4.14260000      17.66572000      15.82100000
B        4.36710000      18.36052000      18.16600000
Nb       5.99810000      16.54622000      18.06200000
B        4.56170000      17.57082000      19.77500000
Nb      15.51740000      16.13672000      16.87300000
B       14.12250000      17.91152000      18.64800000
Nb      12.30100000      16.77652000      17.35500000
B       12.60420000      17.48262000      19.70000000
Ti      14.02330000      15.57425000      19.56200000
Hf      11.00180000      15.53629000      19.91700000
Ti       9.22310000      19.67422000      19.23400000
Zr       6.08210000      19.54122000      19.56500000
Ta      12.34770000      19.79002000      18.88900000
B        9.67970000       6.19301000       5.33800000
B        8.04380000       6.52740500       4.67000000
B        6.60320000       6.01185200       5.64800000
B        4.98550000       6.31363900       5.03400000
B       13.98360000       6.93117000       4.07200000
B       12.88440000       6.33596700       5.15000000
B       11.09640000       6.74011600       4.44000000
B       12.81840000       5.59543900       6.69200000
Ta      11.32620000       4.60457000       5.39900000
B       11.48910000       5.18606900       7.61500000
B        9.85710000       5.32542200       7.00100000
B        8.41930000       5.08734300       7.96500000
B        6.80440000       5.24562800       7.33300000
B        5.38070000       4.94388900       8.27100000
B       13.53360000      10.65293000       5.46900000
B       10.93750000      10.42321000       4.22000000
B        7.85540000      10.29528000       4.53800000
Ti       9.46670000       8.53588000       4.46900000
B        9.68830000       9.21698000       6.83600000
B        8.04800000       9.49565000       6.14200000
B        4.75500000      10.13337000       4.86500000
Ti       6.39660000       8.35209000       4.76800000
B        6.60580000       9.05616000       7.13800000
B        4.95730000       9.37075000       6.50000000
B       13.58610000      10.56862000       7.37500000
Nb      12.53430000       8.69569000       4.28100000
B       12.76380000       9.35811000       6.50500000
B       11.08520000       9.65183000       5.86000000
B       13.05420000       8.73648000       8.13600000
Nb      11.33950000       7.45960000       6.77000000
B       11.55300000       8.06814000       9.09000000
B        9.88720000       8.38357000       8.45500000
Zr       8.24690000       7.22934000       7.01900000
B        8.45120000       7.86640000       9.40600000
B        6.81100000       8.22130000       8.76000000
Ti      10.09410000       6.14995000       9.22600000
B       10.25480000       6.65130600      11.59900000
B        8.63240000       6.98367000      10.96900000
Nb       5.17710000       7.11820000       7.34500000
B        5.37000000       7.71725000       9.72000000
Ti       6.99520000       5.99316920       9.55400000
B        7.18350000       6.52714700      11.95800000
B        5.56210000       6.84110500      11.32600000
B        4.12790000       6.39271800      12.28300000
Zr      13.22770000       6.35099300       8.93900000
B       13.31910000       6.88987000      11.34500000
B       11.70430000       7.22380000      10.65400000
B       13.42240000       6.16514600      12.87400000
Nb      11.92710000       5.09909300      11.57200000
B       12.12700000       5.56460000      13.85000000
B       10.43160000       5.82371100      13.22100000
B        8.99990000       5.57517500      14.21300000
B        7.36580000       5.78875000      13.61200000
B        5.93660000       5.53995000      14.55300000
B        4.32390000       5.67939800      13.96200000
B       12.43810000       5.09044600      15.42900000
Hf       9.56730000      11.44952000       5.90900000
Zr       6.40830000      11.33096000       6.27600000
Nb      11.32850000      10.34747000       8.25900000
B       11.53040000      10.96717000      10.62900000
B        9.93320000      11.22318000       9.96000000
Ta       8.26110000      10.21105000       8.53500000
B        8.49130000      10.81759000      10.87500000
B        6.84860000      11.11447000      10.27100000
Ta      10.09140000       9.02674000      10.79200000
B       10.28170000       9.77901000      13.10800000
B        8.68110000      10.09261000      12.47000000
Ta       5.18030000      10.00690000       8.89800000
B        5.40780000      10.70492000      11.20800000
Hf       7.01280000       8.88342000      11.12700000
B        7.21530000       9.68311000      13.44200000
B        5.59380000       9.96850000      12.82900000
B        4.16230000       9.59757000      13.78200000
Nb      13.11500000       9.11400000      10.50900000
B       13.36230000       9.68474000      12.78900000
B       11.77290000      10.19023000      12.13900000
B       13.55780000       9.08300000      14.32800000
Ta      11.87750000       7.92842000      13.00700000
B       12.14520000       8.62392000      15.33000000
B       10.49420000       8.99502000      14.72000000
Zr       8.82610000       7.77818000      13.32700000
B        9.07460000       8.49478000      15.68500000
B        7.41360000       8.84107000      15.02800000
Nb      10.69630000       6.64950200      15.52900000
B       10.97690000       7.28759000      17.86700000
B        9.30480000       7.62352000      17.26000000
Ti       5.76290000       7.68739000      13.65700000
B        5.99470000       8.36874000      15.99500000
B        4.36960000       8.75176000      15.36600000
Ta       7.59220000       6.55937100      15.87500000
B        7.87180000       7.13737000      18.24900000
B        6.21850000       7.51350000      17.62700000
Ta       4.53690000       6.47601600      16.23000000
B        4.78550000       7.06811000      18.59700000
Ti      13.68990000       6.88468800      15.12300000
B       13.98790000       7.42428000      17.41500000
B       12.36710000       7.81448000      16.87600000
B       14.17480000       6.83606400      18.92500000
Hf      12.66050000       5.48308700      17.67200000
B       11.23870000       6.48554300      19.46200000
Zr       9.49840000       5.28274300      18.15500000
B        8.10920000       6.28771800      19.91700000
Ti       6.39520000       5.41930900      18.58800000
Zr      11.98900000      10.97082000      14.40400000
Nb       8.86290000      10.78744000      14.77100000
B        9.09890000      11.27556000      17.08900000
B        7.49960000      11.70087000      16.57000000
Ti      10.73690000       9.59114000      17.03000000
B       11.03090000      10.32052000      19.26000000
B        9.36910000      10.61789000      18.65800000
Ta       5.81200000      10.73996000      15.14200000
B        6.05550000      11.30230000      17.49600000
B        4.42380000      11.64551000      16.91500000
Nb       7.65840000       9.46776000      17.37300000
B        7.90630000      10.20015000      19.67400000
B        6.26910000      10.51890000      19.07600000
Ta       4.59350000       9.40553000      17.72700000
Zr      13.97050000       9.68055000      16.64700000
B       14.07660000      10.49416000      19.00800000
B       12.46480000      10.73511000      18.32800000
Ti      12.62410000       8.54550000      19.17900000
Zr       9.56030000       8.33397000      19.59800000
Nb       6.45140000       8.24480000      19.95600000
277
Lattice="24.0 0.0 0.0 0.0 24.0 0.0 0.0 0.0 24.0" Properties=species:S:1:pos:R:3 timestep=8698 pbc="T T T"
B        6.08880000       7.62170000       6.20840000
B        4.69290000       6.51230000       6.14930000
B        6.88790000       7.80640000       7.73900000
B        7.90180000       4.24970000      10.93910000
Ti       6.46160000       5.45230000       7.45370000
B        4.82870000       4.82500000       9.40940000
B        4.97350000       4.04220000      11.02700000
B        6.07910000       9.13490000       8.50170000
B        4.57970000       9.59980000       7.86580000
B       11.25080000       6.89040000      11.94220000
B        7.87260000       7.77200000      10.55120000
B        6.27170000       8.34800000      10.10360000
Nb       9.49420000       5.96910000      10.45270000
B        9.80670000       6.59150000      12.87050000
B        8.13400000       7.01180000      12.20050000
Nb       4.68700000       7.25270000       8.63960000
B        4.86700000       7.81400000      10.97880000
Ti       6.42020000       5.95730000      10.84490000
B        6.69580000       6.59020000      13.18350000
B        5.06640000       6.95560000      12.54950000
B       12.59590000       9.25430000      12.56550000
B       12.88800000       6.71410000      12.60650000
B       11.77220000       9.35000000      10.94930000
Zr      13.92830000       8.21320000      10.77170000
B       13.18030000       5.97050000      14.15750000
Zr      11.47840000       4.66650000      12.70050000
B       11.73100000       5.50880000      15.13450000
B       10.04500000       5.84840000      14.48050000
Ta       8.28790000       4.76000000      13.11750000
B        8.58530000       5.43560000      15.45950000
B        6.90210000       5.80630000      14.80950000
B       10.40620000       4.28540000      17.70350000
B        8.78340000       4.64530000      17.07650000
Ti       5.17840000       4.72930000      13.44350000
B        5.43980000       5.37840000      15.78750000
B        7.30910000       4.23040000      18.06650000
B        5.64050000       4.58320000      17.42750000
B        4.18740000       4.13790000      18.39750000
B       13.51000000       4.29610000      17.43950000
B       11.87880000       4.73720000      16.74750000
B        4.28420000      13.49050000       7.84480000
B        6.18930000      12.11150000       9.96870000
B        4.60840000      12.58240000       9.31640000
B       11.37780000      10.46990000      12.21450000
Ti       7.61300000      10.14730000       9.89100000
B        8.08900000      10.91730000      12.08360000
B        6.42520000      11.29920000      11.51660000
Zr       9.64660000       8.89040000      12.02300000
B        9.87870000       9.69430000      14.43850000
B        8.29900000      10.11530000      13.73350000
Ti       4.74360000      10.21390000      10.14160000